Program Version,EnergyPlus, Version 8.5.0-c87e61b44b, YMD=2018.10.24 02:55
1,5,Environment Title[],Latitude[deg],Longitude[deg],Time Zone[],Elevation[m]
2,6,Day of Simulation[],Month[],Day of Month[],DST Indicator[1=yes 0=no],Hour[],StartMinute[],EndMinute[],DayType
3,3,Cumulative Day of Simulation[],Month[],Day of Month[],DST Indicator[1=yes 0=no],DayType  ! When Daily Meters Requested
4,2,Cumulative Days of Simulation[],Month[]  ! When Monthly Meters Requested
5,1,Cumulative Days of Simulation[] ! When Run Period Meters Requested
9,1,Electricity:Facility [J] !TimeStep
715,1,DistrictCooling:Facility [J] !TimeStep
684,1,DistrictHeating:Facility [J] !TimeStep
End of Data Dictionary
1,PIACENZA ANN CLG .4% CONDNS DB=>MWB,  44.92,   9.73,   1.00, 134.00
2,1, 8,21, 0, 1, 0.00,15.00,SummerDesignDay
9,81607663.2153263
684,0.0
715,67571240.486753
2,1, 8,21, 0, 1,15.00,30.00,SummerDesignDay
9,81607663.2153263
684,0.0
715,66264915.5151825
2,1, 8,21, 0, 1,30.00,45.00,SummerDesignDay
9,81607663.2153263
684,0.0
715,64782924.662503
2,1, 8,21, 0, 1,45.00,60.00,SummerDesignDay
9,81607663.2153263
684,0.0
715,63712711.2968941
2,1, 8,21, 0, 2, 0.00,15.00,SummerDesignDay
9,81607663.2153263
684,0.0
715,63172358.6171092
2,1, 8,21, 0, 2,15.00,30.00,SummerDesignDay
9,81607663.2153263
684,0.0
715,62822292.1752784
2,1, 8,21, 0, 2,30.00,45.00,SummerDesignDay
9,81607663.2153263
684,0.0
715,62487644.6606307
2,1, 8,21, 0, 2,45.00,60.00,SummerDesignDay
9,81607663.2153263
684,0.0
715,62129190.0743798
2,1, 8,21, 0, 3, 0.00,15.00,SummerDesignDay
9,81607663.2153263
684,0.0
715,61820096.4521962
2,1, 8,21, 0, 3,15.00,30.00,SummerDesignDay
9,81607663.2153263
684,0.0
715,61509382.4035587
2,1, 8,21, 0, 3,30.00,45.00,SummerDesignDay
9,81607663.2153263
684,0.0
715,61197493.7463714
2,1, 8,21, 0, 3,45.00,60.00,SummerDesignDay
9,81607663.2153263
684,0.0
715,60883556.1160598
2,1, 8,21, 0, 4, 0.00,15.00,SummerDesignDay
9,81607663.2153263
684,0.0
715,60567231.0711433
2,1, 8,21, 0, 4,15.00,30.00,SummerDesignDay
9,81607663.2153263
684,0.0
715,60247421.0196145
2,1, 8,21, 0, 4,30.00,45.00,SummerDesignDay
9,81607663.2153263
684,0.0
715,59924516.6887984
2,1, 8,21, 0, 4,45.00,60.00,SummerDesignDay
9,81607663.2153263
684,0.0
715,59596241.8244025
2,1, 8,21, 0, 5, 0.00,15.00,SummerDesignDay
9,81607663.2153263
684,0.0
715,59325640.3628878
2,1, 8,21, 0, 5,15.00,30.00,SummerDesignDay
9,81607663.2153263
684,0.0
715,59052271.8760236
2,1, 8,21, 0, 5,30.00,45.00,SummerDesignDay
9,81607663.2153263
684,0.0
715,58777199.8421311
2,1, 8,21, 0, 5,45.00,60.00,SummerDesignDay
9,81607663.2153263
684,0.0
715,58499953.7631612
2,1, 8,21, 0, 6, 0.00,15.00,SummerDesignDay
9,81607663.2153263
684,0.0
715,58466703.6261129
2,1, 8,21, 0, 6,15.00,30.00,SummerDesignDay
9,81607663.2153263
684,0.0
715,58448022.841293
2,1, 8,21, 0, 6,30.00,45.00,SummerDesignDay
9,81607663.2153263
684,0.0
715,58858654.6735197
2,1, 8,21, 0, 6,45.00,60.00,SummerDesignDay
9,81607663.2153263
684,0.0
715,59784099.6199868
2,1, 8,21, 0, 7, 0.00,15.00,SummerDesignDay
9,81607663.2153263
684,0.0
715,189054350.318369
2,1, 8,21, 0, 7,15.00,30.00,SummerDesignDay
9,81607663.2153263
684,0.0
715,93051769.4161183
2,1, 8,21, 0, 7,30.00,45.00,SummerDesignDay
9,81607663.2153263
684,0.0
715,173938894.568888
2,1, 8,21, 0, 7,45.00,60.00,SummerDesignDay
9,81607663.2153263
684,0.0
715,158686879.338634
2,1, 8,21, 0, 8, 0.00,15.00,SummerDesignDay
9,81607663.2153263
684,0.0
715,159502104.59617
2,1, 8,21, 0, 8,15.00,30.00,SummerDesignDay
9,81607663.2153263
684,0.0
715,161640919.005945
2,1, 8,21, 0, 8,30.00,45.00,SummerDesignDay
9,81607663.2153263
684,0.0
715,164938818.98394
2,1, 8,21, 0, 8,45.00,60.00,SummerDesignDay
9,81607663.2153263
684,0.0
715,168287814.210446
2,1, 8,21, 0, 9, 0.00,15.00,SummerDesignDay
9,81607663.2153263
684,0.0
715,171708253.8396
2,1, 8,21, 0, 9,15.00,30.00,SummerDesignDay
9,81607663.2153263
684,0.0
715,174962885.95283
2,1, 8,21, 0, 9,30.00,45.00,SummerDesignDay
9,81607663.2153263
684,0.0
715,178175559.896591
2,1, 8,21, 0, 9,45.00,60.00,SummerDesignDay
9,81607663.2153263
684,0.0
715,181375245.935174
2,1, 8,21, 0,10, 0.00,15.00,SummerDesignDay
9,81607663.2153263
684,0.0
715,184126962.688104
2,1, 8,21, 0,10,15.00,30.00,SummerDesignDay
9,81607663.2153263
684,0.0
715,186885546.515306
2,1, 8,21, 0,10,30.00,45.00,SummerDesignDay
9,81607663.2153263
684,0.0
715,189644754.378761
2,1, 8,21, 0,10,45.00,60.00,SummerDesignDay
9,81607663.2153263
684,0.0
715,192387651.584618
2,1, 8,21, 0,11, 0.00,15.00,SummerDesignDay
9,81607663.2153263
684,0.0
715,194690457.938075
2,1, 8,21, 0,11,15.00,30.00,SummerDesignDay
9,81607663.2153263
684,0.0
715,197011527.812668
2,1, 8,21, 0,11,30.00,45.00,SummerDesignDay
9,81607663.2153263
684,0.0
715,199610542.402781
2,1, 8,21, 0,11,45.00,60.00,SummerDesignDay
9,81607663.2153263
684,0.0
715,202378080.33089
2,1, 8,21, 0,12, 0.00,15.00,SummerDesignDay
9,81607663.2153263
684,0.0
715,204221177.389802
2,1, 8,21, 0,12,15.00,30.00,SummerDesignDay
9,81607663.2153263
684,0.0
715,206179253.986182
2,1, 8,21, 0,12,30.00,45.00,SummerDesignDay
9,81607663.2153263
684,0.0
715,208258498.586545
2,1, 8,21, 0,12,45.00,60.00,SummerDesignDay
9,81607663.2153263
684,0.0
715,210434982.963814
2,1, 8,21, 0,13, 0.00,15.00,SummerDesignDay
9,81607663.2153263
684,0.0
715,212223746.433709
2,1, 8,21, 0,13,15.00,30.00,SummerDesignDay
9,81607663.2153263
684,0.0
715,214032636.861671
2,1, 8,21, 0,13,30.00,45.00,SummerDesignDay
9,81607663.2153263
684,0.0
715,215857376.419911
2,1, 8,21, 0,13,45.00,60.00,SummerDesignDay
9,81607663.2153263
684,0.0
715,217688866.984606
2,1, 8,21, 0,14, 0.00,15.00,SummerDesignDay
9,81607663.2153263
684,0.0
715,218915140.712072
2,1, 8,21, 0,14,15.00,30.00,SummerDesignDay
9,81607663.2153263
684,0.0
715,219946464.645604
2,1, 8,21, 0,14,30.00,45.00,SummerDesignDay
9,81607663.2153263
684,0.0
715,220783140.086641
2,1, 8,21, 0,14,45.00,60.00,SummerDesignDay
9,81607663.2153263
684,0.0
715,221740982.6785
2,1, 8,21, 0,15, 0.00,15.00,SummerDesignDay
9,81607663.2153263
684,0.0
715,221794400.256237
2,1, 8,21, 0,15,15.00,30.00,SummerDesignDay
9,81607663.2153263
684,0.0
715,222207456.169298
2,1, 8,21, 0,15,30.00,45.00,SummerDesignDay
9,81607663.2153263
684,0.0
715,222809995.779761
2,1, 8,21, 0,15,45.00,60.00,SummerDesignDay
9,81607663.2153263
684,0.0
715,223465466.447583
2,1, 8,21, 0,16, 0.00,15.00,SummerDesignDay
9,81607663.2153263
684,0.0
715,222928490.182155
2,1, 8,21, 0,16,15.00,30.00,SummerDesignDay
9,81607663.2153263
684,0.0
715,222417211.465033
2,1, 8,21, 0,16,30.00,45.00,SummerDesignDay
9,81607663.2153263
684,0.0
715,221926468.555792
2,1, 8,21, 0,16,45.00,60.00,SummerDesignDay
9,81607663.2153263
684,0.0
715,221418816.737405
2,1, 8,21, 0,17, 0.00,15.00,SummerDesignDay
9,81607663.2153263
684,0.0
715,220470043.854475
2,1, 8,21, 0,17,15.00,30.00,SummerDesignDay
9,81607663.2153263
684,0.0
715,219468408.481626
2,1, 8,21, 0,17,30.00,45.00,SummerDesignDay
9,81607663.2153263
684,0.0
715,218404277.083126
2,1, 8,21, 0,17,45.00,60.00,SummerDesignDay
9,81607663.2153263
684,0.0
715,217148718.957998
2,1, 8,21, 0,18, 0.00,15.00,SummerDesignDay
9,81607663.2153263
684,0.0
715,215449123.087237
2,1, 8,21, 0,18,15.00,30.00,SummerDesignDay
9,81607663.2153263
684,0.0
715,213668602.324944
2,1, 8,21, 0,18,30.00,45.00,SummerDesignDay
9,81607663.2153263
684,0.0
715,211809715.246091
2,1, 8,21, 0,18,45.00,60.00,SummerDesignDay
9,81607663.2153263
684,0.0
715,209860799.034879
2,1, 8,21, 0,19, 0.00,15.00,SummerDesignDay
9,81607663.2153263
684,0.0
715,206756781.106143
2,1, 8,21, 0,19,15.00,30.00,SummerDesignDay
9,81607663.2153263
684,0.0
715,203348175.063064
2,1, 8,21, 0,19,30.00,45.00,SummerDesignDay
9,81607663.2153263
684,0.0
715,200130545.544127
2,1, 8,21, 0,19,45.00,60.00,SummerDesignDay
9,81607663.2153263
684,0.0
715,196484881.50113
2,1, 8,21, 0,20, 0.00,15.00,SummerDesignDay
9,81607663.2153263
684,0.0
715,193524012.247471
2,1, 8,21, 0,20,15.00,30.00,SummerDesignDay
9,81607663.2153263
684,0.0
715,191033479.740173
2,1, 8,21, 0,20,30.00,45.00,SummerDesignDay
9,81607663.2153263
684,0.0
715,188846030.125843
2,1, 8,21, 0,20,45.00,60.00,SummerDesignDay
9,81607663.2153263
684,0.0
715,186572136.897143
2,1, 8,21, 0,21, 0.00,15.00,SummerDesignDay
9,81607663.2153263
684,0.0
715,184664235.367693
2,1, 8,21, 0,21,15.00,30.00,SummerDesignDay
9,81607663.2153263
684,0.0
715,182729781.541211
2,1, 8,21, 0,21,30.00,45.00,SummerDesignDay
9,81607663.2153263
684,0.0
715,180778692.471782
2,1, 8,21, 0,21,45.00,60.00,SummerDesignDay
9,81607663.2153263
684,0.0
715,178805675.157378
2,1, 8,21, 0,22, 0.00,15.00,SummerDesignDay
9,81607663.2153263
684,0.0
715,176819964.637426
2,1, 8,21, 0,22,15.00,30.00,SummerDesignDay
9,81607663.2153263
684,0.0
715,174825357.881678
2,1, 8,21, 0,22,30.00,45.00,SummerDesignDay
9,81607663.2153263
684,0.0
715,172816125.3366
2,1, 8,21, 0,22,45.00,60.00,SummerDesignDay
9,81607663.2153263
684,0.0
715,170798803.496482
2,1, 8,21, 0,23, 0.00,15.00,SummerDesignDay
9,81607663.2153263
684,0.0
715,49294146.8938983
2,1, 8,21, 0,23,15.00,30.00,SummerDesignDay
9,81607663.2153263
684,0.0
715,65849504.9358148
2,1, 8,21, 0,23,30.00,45.00,SummerDesignDay
9,81607663.2153263
684,0.0
715,72191646.7127009
2,1, 8,21, 0,23,45.00,60.00,SummerDesignDay
9,81607663.2153263
684,0.0
715,72707785.1573535
2,1, 8,21, 0,24, 0.00,15.00,SummerDesignDay
9,81607663.2153263
684,0.0
715,72977744.7644194
2,1, 8,21, 0,24,15.00,30.00,SummerDesignDay
9,81607663.2153263
684,0.0
715,68797861.3047058
2,1, 8,21, 0,24,30.00,45.00,SummerDesignDay
9,81607663.2153263
684,0.0
715,68042094.9066268
2,1, 8,21, 0,24,45.00,60.00,SummerDesignDay
9,81607663.2153263
684,0.0
715,67946886.7388585
1,PIACENZA ANN CLG .4% CONDNS DP=>MDB,  44.92,   9.73,   1.00, 134.00
2,1, 8,21, 0, 1, 0.00,15.00,SummerDesignDay
9,81607663.2153263
684,0.0
715,52892297.263585
2,1, 8,21, 0, 1,15.00,30.00,SummerDesignDay
9,81607663.2153263
684,0.0
715,51522738.9399454
2,1, 8,21, 0, 1,30.00,45.00,SummerDesignDay
9,81607663.2153263
684,0.0
715,50029298.7865279
2,1, 8,21, 0, 1,45.00,60.00,SummerDesignDay
9,81607663.2153263
684,0.0
715,48671042.1049287
2,1, 8,21, 0, 2, 0.00,15.00,SummerDesignDay
9,81607663.2153263
684,0.0
715,47790078.4553205
2,1, 8,21, 0, 2,15.00,30.00,SummerDesignDay
9,81607663.2153263
684,0.0
715,47123427.5651769
2,1, 8,21, 0, 2,30.00,45.00,SummerDesignDay
9,81607663.2153263
684,0.0
715,46525729.8367657
2,1, 8,21, 0, 2,45.00,60.00,SummerDesignDay
9,81607663.2153263
684,0.0
715,45954856.7563395
2,1, 8,21, 0, 3, 0.00,15.00,SummerDesignDay
9,81607663.2153263
684,0.0
715,45450276.0486377
2,1, 8,21, 0, 3,15.00,30.00,SummerDesignDay
9,81607663.2153263
684,0.0
715,44967521.3466638
2,1, 8,21, 0, 3,30.00,45.00,SummerDesignDay
9,81607663.2153263
684,0.0
715,44504417.5352504
2,1, 8,21, 0, 3,45.00,60.00,SummerDesignDay
9,81607663.2153263
684,0.0
715,44056693.553075
2,1, 8,21, 0, 4, 0.00,15.00,SummerDesignDay
9,81607663.2153263
684,0.0
715,43619752.6778451
2,1, 8,21, 0, 4,15.00,30.00,SummerDesignDay
9,81607663.2153263
684,0.0
715,43186023.0955807
2,1, 8,21, 0, 4,30.00,45.00,SummerDesignDay
9,81607663.2153263
684,0.0
715,42730860.9417211
2,1, 8,21, 0, 4,45.00,60.00,SummerDesignDay
9,81607663.2153263
684,0.0
715,42289037.7788913
2,1, 8,21, 0, 5, 0.00,15.00,SummerDesignDay
9,81607663.2153263
684,0.0
715,41908514.2548664
2,1, 8,21, 0, 5,15.00,30.00,SummerDesignDay
9,81607663.2153263
684,0.0
715,41542920.3525227
2,1, 8,21, 0, 5,30.00,45.00,SummerDesignDay
9,81607663.2153263
684,0.0
715,41189188.5957693
2,1, 8,21, 0, 5,45.00,60.00,SummerDesignDay
9,81607663.2153263
684,0.0
715,40844557.6292417
2,1, 8,21, 0, 6, 0.00,15.00,SummerDesignDay
9,81607663.2153263
684,0.0
715,40704012.0565786
2,1, 8,21, 0, 6,15.00,30.00,SummerDesignDay
9,81607663.2153263
684,0.0
715,40590302.1397513
2,1, 8,21, 0, 6,30.00,45.00,SummerDesignDay
9,81607663.2153263
684,0.0
715,40756988.8981858
2,1, 8,21, 0, 6,45.00,60.00,SummerDesignDay
9,81607663.2153263
684,0.0
715,41261227.249202
2,1, 8,21, 0, 7, 0.00,15.00,SummerDesignDay
9,81607663.2153263
684,0.0
715,135609135.352248
2,1, 8,21, 0, 7,15.00,30.00,SummerDesignDay
9,81607663.2153263
684,0.0
715,40714186.8657589
2,1, 8,21, 0, 7,30.00,45.00,SummerDesignDay
9,81607663.2153263
684,0.0
715,112048038.930747
2,1, 8,21, 0, 7,45.00,60.00,SummerDesignDay
9,81607663.2153263
684,0.0
715,101182724.413181
2,1, 8,21, 0, 8, 0.00,15.00,SummerDesignDay
9,81607663.2153263
684,0.0
715,103794258.966352
2,1, 8,21, 0, 8,15.00,30.00,SummerDesignDay
9,81607663.2153263
684,0.0
715,108280136.486643
2,1, 8,21, 0, 8,30.00,45.00,SummerDesignDay
9,81607663.2153263
684,0.0
715,113662670.75281
2,1, 8,21, 0, 8,45.00,60.00,SummerDesignDay
9,81607663.2153263
684,0.0
715,119366583.352613
2,1, 8,21, 0, 9, 0.00,15.00,SummerDesignDay
9,81607663.2153263
684,0.0
715,125375044.020412
2,1, 8,21, 0, 9,15.00,30.00,SummerDesignDay
9,81607663.2153263
684,0.0
715,131409269.057439
2,1, 8,21, 0, 9,30.00,45.00,SummerDesignDay
9,81607663.2153263
684,0.0
715,137583560.01123
2,1, 8,21, 0, 9,45.00,60.00,SummerDesignDay
9,81607663.2153263
684,0.0
715,143875090.149076
2,1, 8,21, 0,10, 0.00,15.00,SummerDesignDay
9,81607663.2153263
684,0.0
715,149745253.977461
2,1, 8,21, 0,10,15.00,30.00,SummerDesignDay
9,81607663.2153263
684,0.0
715,155564978.467511
2,1, 8,21, 0,10,30.00,45.00,SummerDesignDay
9,81607663.2153263
684,0.0
715,161407833.187482
2,1, 8,21, 0,10,45.00,60.00,SummerDesignDay
9,81607663.2153263
684,0.0
715,168528755.859159
2,1, 8,21, 0,11, 0.00,15.00,SummerDesignDay
9,81607663.2153263
684,0.0
715,175719104.062527
2,1, 8,21, 0,11,15.00,30.00,SummerDesignDay
9,81607663.2153263
684,0.0
715,181869706.772537
2,1, 8,21, 0,11,30.00,45.00,SummerDesignDay
9,81607663.2153263
684,0.0
715,186381679.632294
2,1, 8,21, 0,11,45.00,60.00,SummerDesignDay
9,81607663.2153263
684,0.0
715,190029913.635077
2,1, 8,21, 0,12, 0.00,15.00,SummerDesignDay
9,81607663.2153263
684,0.0
715,192095679.553655
2,1, 8,21, 0,12,15.00,30.00,SummerDesignDay
9,81607663.2153263
684,0.0
715,194170699.340158
2,1, 8,21, 0,12,30.00,45.00,SummerDesignDay
9,81607663.2153263
684,0.0
715,196278297.642455
2,1, 8,21, 0,12,45.00,60.00,SummerDesignDay
9,81607663.2153263
684,0.0
715,198393212.283306
2,1, 8,21, 0,13, 0.00,15.00,SummerDesignDay
9,81607663.2153263
684,0.0
715,200002689.016574
2,1, 8,21, 0,13,15.00,30.00,SummerDesignDay
9,81607663.2153263
684,0.0
715,201674483.107949
2,1, 8,21, 0,13,30.00,45.00,SummerDesignDay
9,81607663.2153263
684,0.0
715,203396305.178562
2,1, 8,21, 0,13,45.00,60.00,SummerDesignDay
9,81607663.2153263
684,0.0
715,205134301.607188
2,1, 8,21, 0,14, 0.00,15.00,SummerDesignDay
9,81607663.2153263
684,0.0
715,206126574.87865
2,1, 8,21, 0,14,15.00,30.00,SummerDesignDay
9,81607663.2153263
684,0.0
715,207207519.42445
2,1, 8,21, 0,14,30.00,45.00,SummerDesignDay
9,81607663.2153263
684,0.0
715,208309837.89067
2,1, 8,21, 0,14,45.00,60.00,SummerDesignDay
9,81607663.2153263
684,0.0
715,209437711.43392
2,1, 8,21, 0,15, 0.00,15.00,SummerDesignDay
9,81607663.2153263
684,0.0
715,209340823.208294
2,1, 8,21, 0,15,15.00,30.00,SummerDesignDay
9,81607663.2153263
684,0.0
715,209701739.91787
2,1, 8,21, 0,15,30.00,45.00,SummerDesignDay
9,81607663.2153263
684,0.0
715,210330642.361143
2,1, 8,21, 0,15,45.00,60.00,SummerDesignDay
9,81607663.2153263
684,0.0
715,211027304.64184
2,1, 8,21, 0,16, 0.00,15.00,SummerDesignDay
9,81607663.2153263
684,0.0
715,210255561.061773
2,1, 8,21, 0,16,15.00,30.00,SummerDesignDay
9,81607663.2153263
684,0.0
715,209646053.145482
2,1, 8,21, 0,16,30.00,45.00,SummerDesignDay
9,81607663.2153263
684,0.0
715,209148782.468296
2,1, 8,21, 0,16,45.00,60.00,SummerDesignDay
9,81607663.2153263
684,0.0
715,208651654.80491
2,1, 8,21, 0,17, 0.00,15.00,SummerDesignDay
9,81607663.2153263
684,0.0
715,207617154.620209
2,1, 8,21, 0,17,15.00,30.00,SummerDesignDay
9,81607663.2153263
684,0.0
715,206573689.662902
2,1, 8,21, 0,17,30.00,45.00,SummerDesignDay
9,81607663.2153263
684,0.0
715,205488490.749983
2,1, 8,21, 0,17,45.00,60.00,SummerDesignDay
9,81607663.2153263
684,0.0
715,204198277.467824
2,1, 8,21, 0,18, 0.00,15.00,SummerDesignDay
9,81607663.2153263
684,0.0
715,202373763.060073
2,1, 8,21, 0,18,15.00,30.00,SummerDesignDay
9,81607663.2153263
684,0.0
715,200515434.138302
2,1, 8,21, 0,18,30.00,45.00,SummerDesignDay
9,81607663.2153263
684,0.0
715,198609675.027421
2,1, 8,21, 0,18,45.00,60.00,SummerDesignDay
9,81607663.2153263
684,0.0
715,196614969.845006
2,1, 8,21, 0,19, 0.00,15.00,SummerDesignDay
9,81607663.2153263
684,0.0
715,193235152.854675
2,1, 8,21, 0,19,15.00,30.00,SummerDesignDay
9,81607663.2153263
684,0.0
715,189610562.716496
2,1, 8,21, 0,19,30.00,45.00,SummerDesignDay
9,81607663.2153263
684,0.0
715,185916192.935865
2,1, 8,21, 0,19,45.00,60.00,SummerDesignDay
9,81607663.2153263
684,0.0
715,181820980.598752
2,1, 8,21, 0,20, 0.00,15.00,SummerDesignDay
9,81607663.2153263
684,0.0
715,177849983.690438
2,1, 8,21, 0,20,15.00,30.00,SummerDesignDay
9,81607663.2153263
684,0.0
715,173458258.289676
2,1, 8,21, 0,20,30.00,45.00,SummerDesignDay
9,81607663.2153263
684,0.0
715,168806834.884332
2,1, 8,21, 0,20,45.00,60.00,SummerDesignDay
9,81607663.2153263
684,0.0
715,164089510.687439
2,1, 8,21, 0,21, 0.00,15.00,SummerDesignDay
9,81607663.2153263
684,0.0
715,159897172.265368
2,1, 8,21, 0,21,15.00,30.00,SummerDesignDay
9,81607663.2153263
684,0.0
715,155833638.101905
2,1, 8,21, 0,21,30.00,45.00,SummerDesignDay
9,81607663.2153263
684,0.0
715,151867571.136054
2,1, 8,21, 0,21,45.00,60.00,SummerDesignDay
9,81607663.2153263
684,0.0
715,147946101.309895
2,1, 8,21, 0,22, 0.00,15.00,SummerDesignDay
9,81607663.2153263
684,0.0
715,144047131.513905
2,1, 8,21, 0,22,15.00,30.00,SummerDesignDay
9,81607663.2153263
684,0.0
715,140170813.122356
2,1, 8,21, 0,22,30.00,45.00,SummerDesignDay
9,81607663.2153263
684,0.0
715,136319441.120239
2,1, 8,21, 0,22,45.00,60.00,SummerDesignDay
9,81607663.2153263
684,0.0
715,132494699.677258
2,1, 8,21, 0,23, 0.00,15.00,SummerDesignDay
9,81607663.2153263
684,0.0
715,38431372.8621175
2,1, 8,21, 0,23,15.00,30.00,SummerDesignDay
9,81607663.2153263
684,0.0
715,49374402.3682213
2,1, 8,21, 0,23,30.00,45.00,SummerDesignDay
9,81607663.2153263
684,0.0
715,55912676.8608185
2,1, 8,21, 0,23,45.00,60.00,SummerDesignDay
9,81607663.2153263
684,0.0
715,61694507.5780178
2,1, 8,21, 0,24, 0.00,15.00,SummerDesignDay
9,81607663.2153263
684,0.0
715,59518003.9120555
2,1, 8,21, 0,24,15.00,30.00,SummerDesignDay
9,81607663.2153263
684,0.0
715,56999839.5228069
2,1, 8,21, 0,24,30.00,45.00,SummerDesignDay
9,81607663.2153263
684,0.0
715,54126214.5741781
2,1, 8,21, 0,24,45.00,60.00,SummerDesignDay
9,81607663.2153263
684,0.0
715,52586101.6892348
1,PIACENZA ANN CLG .4% CONDNS ENTH=>MDB,  44.92,   9.73,   1.00, 134.00
2,1, 8,21, 0, 1, 0.00,15.00,SummerDesignDay
9,81607663.2153263
684,0.0
715,63606839.7408507
2,1, 8,21, 0, 1,15.00,30.00,SummerDesignDay
9,81607663.2153263
684,0.0
715,62000272.2343751
2,1, 8,21, 0, 1,30.00,45.00,SummerDesignDay
9,81607663.2153263
684,0.0
715,60405722.5862336
2,1, 8,21, 0, 1,45.00,60.00,SummerDesignDay
9,81607663.2153263
684,0.0
715,58979609.1381845
2,1, 8,21, 0, 2, 0.00,15.00,SummerDesignDay
9,81607663.2153263
684,0.0
715,57941657.8396181
2,1, 8,21, 0, 2,15.00,30.00,SummerDesignDay
9,81607663.2153263
684,0.0
715,57183933.7649807
2,1, 8,21, 0, 2,30.00,45.00,SummerDesignDay
9,81607663.2153263
684,0.0
715,56535427.1686792
2,1, 8,21, 0, 2,45.00,60.00,SummerDesignDay
9,81607663.2153263
684,0.0
715,55944036.1033692
2,1, 8,21, 0, 3, 0.00,15.00,SummerDesignDay
9,81607663.2153263
684,0.0
715,55436938.7277417
2,1, 8,21, 0, 3,15.00,30.00,SummerDesignDay
9,81607663.2153263
684,0.0
715,54965301.4834649
2,1, 8,21, 0, 3,30.00,45.00,SummerDesignDay
9,81607663.2153263
684,0.0
715,54519175.2949043
2,1, 8,21, 0, 3,45.00,60.00,SummerDesignDay
9,81607663.2153263
684,0.0
715,54095332.1969491
2,1, 8,21, 0, 4, 0.00,15.00,SummerDesignDay
9,81607663.2153263
684,0.0
715,53686578.3595539
2,1, 8,21, 0, 4,15.00,30.00,SummerDesignDay
9,81607663.2153263
684,0.0
715,53286497.8067225
2,1, 8,21, 0, 4,30.00,45.00,SummerDesignDay
9,81607663.2153263
684,0.0
715,52893321.5425508
2,1, 8,21, 0, 4,45.00,60.00,SummerDesignDay
9,81607663.2153263
684,0.0
715,52506044.7462465
2,1, 8,21, 0, 5, 0.00,15.00,SummerDesignDay
9,81607663.2153263
684,0.0
715,52172230.1790086
2,1, 8,21, 0, 5,15.00,30.00,SummerDesignDay
9,81607663.2153263
684,0.0
715,51848864.2025046
2,1, 8,21, 0, 5,30.00,45.00,SummerDesignDay
9,81607663.2153263
684,0.0
715,51529135.3314228
2,1, 8,21, 0, 5,45.00,60.00,SummerDesignDay
9,81607663.2153263
684,0.0
715,51214365.6108172
2,1, 8,21, 0, 6, 0.00,15.00,SummerDesignDay
9,81607663.2153263
684,0.0
715,51096897.7265767
2,1, 8,21, 0, 6,15.00,30.00,SummerDesignDay
9,81607663.2153263
684,0.0
715,51000370.748084
2,1, 8,21, 0, 6,30.00,45.00,SummerDesignDay
9,81607663.2153263
684,0.0
715,51164147.217513
2,1, 8,21, 0, 6,45.00,60.00,SummerDesignDay
9,81607663.2153263
684,0.0
715,51641251.1938182
2,1, 8,21, 0, 7, 0.00,15.00,SummerDesignDay
9,81607663.2153263
684,0.0
715,175876896.963447
2,1, 8,21, 0, 7,15.00,30.00,SummerDesignDay
9,81607663.2153263
684,0.0
715,71652592.1701876
2,1, 8,21, 0, 7,30.00,45.00,SummerDesignDay
9,81607663.2153263
684,0.0
715,156895034.635691
2,1, 8,21, 0, 7,45.00,60.00,SummerDesignDay
9,81607663.2153263
684,0.0
715,140117578.404445
2,1, 8,21, 0, 8, 0.00,15.00,SummerDesignDay
9,81607663.2153263
684,0.0
715,141962290.847853
2,1, 8,21, 0, 8,15.00,30.00,SummerDesignDay
9,81607663.2153263
684,0.0
715,145961716.290487
2,1, 8,21, 0, 8,30.00,45.00,SummerDesignDay
9,81607663.2153263
684,0.0
715,151783461.853256
2,1, 8,21, 0, 8,45.00,60.00,SummerDesignDay
9,81607663.2153263
684,0.0
715,157903703.299161
2,1, 8,21, 0, 9, 0.00,15.00,SummerDesignDay
9,81607663.2153263
684,0.0
715,164240006.150286
2,1, 8,21, 0, 9,15.00,30.00,SummerDesignDay
9,81607663.2153263
684,0.0
715,170646980.20405
2,1, 8,21, 0, 9,30.00,45.00,SummerDesignDay
9,81607663.2153263
684,0.0
715,178396055.931074
2,1, 8,21, 0, 9,45.00,60.00,SummerDesignDay
9,81607663.2153263
684,0.0
715,186266428.382285
2,1, 8,21, 0,10, 0.00,15.00,SummerDesignDay
9,81607663.2153263
684,0.0
715,194583089.023111
2,1, 8,21, 0,10,15.00,30.00,SummerDesignDay
9,81607663.2153263
684,0.0
715,202975417.918664
2,1, 8,21, 0,10,30.00,45.00,SummerDesignDay
9,81607663.2153263
684,0.0
715,211010891.035125
2,1, 8,21, 0,10,45.00,60.00,SummerDesignDay
9,81607663.2153263
684,0.0
715,218844942.337532
2,1, 8,21, 0,11, 0.00,15.00,SummerDesignDay
9,81607663.2153263
684,0.0
715,226109577.29845
2,1, 8,21, 0,11,15.00,30.00,SummerDesignDay
9,81607663.2153263
684,0.0
715,233257735.612824
2,1, 8,21, 0,11,30.00,45.00,SummerDesignDay
9,81607663.2153263
684,0.0
715,240706865.942279
2,1, 8,21, 0,11,45.00,60.00,SummerDesignDay
9,81607663.2153263
684,0.0
715,248438782.076552
2,1, 8,21, 0,12, 0.00,15.00,SummerDesignDay
9,81607663.2153263
684,0.0
715,254929740.596405
2,1, 8,21, 0,12,15.00,30.00,SummerDesignDay
9,81607663.2153263
684,0.0
715,260946974.09869
2,1, 8,21, 0,12,30.00,45.00,SummerDesignDay
9,81607663.2153263
684,0.0
715,266629534.756092
2,1, 8,21, 0,12,45.00,60.00,SummerDesignDay
9,81607663.2153263
684,0.0
715,272243234.007657
2,1, 8,21, 0,13, 0.00,15.00,SummerDesignDay
9,81607663.2153263
684,0.0
715,277297243.19619
2,1, 8,21, 0,13,15.00,30.00,SummerDesignDay
9,81607663.2153263
684,0.0
715,282169626.994902
2,1, 8,21, 0,13,30.00,45.00,SummerDesignDay
9,81607663.2153263
684,0.0
715,286916779.723296
2,1, 8,21, 0,13,45.00,60.00,SummerDesignDay
9,81607663.2153263
684,0.0
715,291648285.069505
2,1, 8,21, 0,14, 0.00,15.00,SummerDesignDay
9,81607663.2153263
684,0.0
715,295471107.464617
2,1, 8,21, 0,14,15.00,30.00,SummerDesignDay
9,81607663.2153263
684,0.0
715,298936899.662274
2,1, 8,21, 0,14,30.00,45.00,SummerDesignDay
9,81607663.2153263
684,0.0
715,302091112.27932
2,1, 8,21, 0,14,45.00,60.00,SummerDesignDay
9,81607663.2153263
684,0.0
715,305186652.062344
2,1, 8,21, 0,15, 0.00,15.00,SummerDesignDay
9,81607663.2153263
684,0.0
715,306702373.041856
2,1, 8,21, 0,15,15.00,30.00,SummerDesignDay
9,81607663.2153263
684,0.0
715,307967046.969012
2,1, 8,21, 0,15,30.00,45.00,SummerDesignDay
9,81607663.2153263
684,0.0
715,308956591.509124
2,1, 8,21, 0,15,45.00,60.00,SummerDesignDay
9,81607663.2153263
684,0.0
715,309816670.01597
2,1, 8,21, 0,16, 0.00,15.00,SummerDesignDay
9,81607663.2153263
684,0.0
715,308725431.203067
2,1, 8,21, 0,16,15.00,30.00,SummerDesignDay
9,81607663.2153263
684,0.0
715,306820936.199075
2,1, 8,21, 0,16,30.00,45.00,SummerDesignDay
9,81607663.2153263
684,0.0
715,304351639.251131
2,1, 8,21, 0,16,45.00,60.00,SummerDesignDay
9,81607663.2153263
684,0.0
715,301679589.314985
2,1, 8,21, 0,17, 0.00,15.00,SummerDesignDay
9,81607663.2153263
684,0.0
715,298320730.408135
2,1, 8,21, 0,17,15.00,30.00,SummerDesignDay
9,81607663.2153263
684,0.0
715,294655250.624841
2,1, 8,21, 0,17,30.00,45.00,SummerDesignDay
9,81607663.2153263
684,0.0
715,290754256.161939
2,1, 8,21, 0,17,45.00,60.00,SummerDesignDay
9,81607663.2153263
684,0.0
715,286571625.940977
2,1, 8,21, 0,18, 0.00,15.00,SummerDesignDay
9,81607663.2153263
684,0.0
715,281788784.54546
2,1, 8,21, 0,18,15.00,30.00,SummerDesignDay
9,81607663.2153263
684,0.0
715,276744089.699715
2,1, 8,21, 0,18,30.00,45.00,SummerDesignDay
9,81607663.2153263
684,0.0
715,271501492.617827
2,1, 8,21, 0,18,45.00,60.00,SummerDesignDay
9,81607663.2153263
684,0.0
715,266170058.39219
2,1, 8,21, 0,19, 0.00,15.00,SummerDesignDay
9,81607663.2153263
684,0.0
715,259277265.00139
2,1, 8,21, 0,19,15.00,30.00,SummerDesignDay
9,81607663.2153263
684,0.0
715,251555605.947166
2,1, 8,21, 0,19,30.00,45.00,SummerDesignDay
9,81607663.2153263
684,0.0
715,243496120.814279
2,1, 8,21, 0,19,45.00,60.00,SummerDesignDay
9,81607663.2153263
684,0.0
715,235095394.038502
2,1, 8,21, 0,20, 0.00,15.00,SummerDesignDay
9,81607663.2153263
684,0.0
715,227938721.057667
2,1, 8,21, 0,20,15.00,30.00,SummerDesignDay
9,81607663.2153263
684,0.0
715,221902373.616445
2,1, 8,21, 0,20,30.00,45.00,SummerDesignDay
9,81607663.2153263
684,0.0
715,216453888.652399
2,1, 8,21, 0,20,45.00,60.00,SummerDesignDay
9,81607663.2153263
684,0.0
715,211167438.919647
2,1, 8,21, 0,21, 0.00,15.00,SummerDesignDay
9,81607663.2153263
684,0.0
715,206446540.590051
2,1, 8,21, 0,21,15.00,30.00,SummerDesignDay
9,81607663.2153263
684,0.0
715,201912530.608214
2,1, 8,21, 0,21,30.00,45.00,SummerDesignDay
9,81607663.2153263
684,0.0
715,197508780.901228
2,1, 8,21, 0,21,45.00,60.00,SummerDesignDay
9,81607663.2153263
684,0.0
715,193166188.781744
2,1, 8,21, 0,22, 0.00,15.00,SummerDesignDay
9,81607663.2153263
684,0.0
715,188853915.909323
2,1, 8,21, 0,22,15.00,30.00,SummerDesignDay
9,81607663.2153263
684,0.0
715,184568744.521722
2,1, 8,21, 0,22,30.00,45.00,SummerDesignDay
9,81607663.2153263
684,0.0
715,180312047.297027
2,1, 8,21, 0,22,45.00,60.00,SummerDesignDay
9,81607663.2153263
684,0.0
715,176084220.336374
2,1, 8,21, 0,23, 0.00,15.00,SummerDesignDay
9,81607663.2153263
684,0.0
715,47225219.5999283
2,1, 8,21, 0,23,15.00,30.00,SummerDesignDay
9,81607663.2153263
684,0.0
715,62864035.1317789
2,1, 8,21, 0,23,30.00,45.00,SummerDesignDay
9,81607663.2153263
684,0.0
715,67721419.183911
2,1, 8,21, 0,23,45.00,60.00,SummerDesignDay
9,81607663.2153263
684,0.0
715,70860499.0536463
2,1, 8,21, 0,24, 0.00,15.00,SummerDesignDay
9,81607663.2153263
684,0.0
715,71042934.5511783
2,1, 8,21, 0,24,15.00,30.00,SummerDesignDay
9,81607663.2153263
684,0.0
715,68945305.7765844
2,1, 8,21, 0,24,30.00,45.00,SummerDesignDay
9,81607663.2153263
684,0.0
715,65643337.0336379
2,1, 8,21, 0,24,45.00,60.00,SummerDesignDay
9,81607663.2153263
684,0.0
715,63978225.7806664
1,PIACENZA ANN CLG .4% CONDNS WB=>MDB,  44.92,   9.73,   1.00, 134.00
2,1, 8,21, 0, 1, 0.00,15.00,SummerDesignDay
9,81607663.2153263
684,0.0
715,62687312.7109576
2,1, 8,21, 0, 1,15.00,30.00,SummerDesignDay
9,81607663.2153263
684,0.0
715,61159295.048938
2,1, 8,21, 0, 1,30.00,45.00,SummerDesignDay
9,81607663.2153263
684,0.0
715,59578725.4398396
2,1, 8,21, 0, 1,45.00,60.00,SummerDesignDay
9,81607663.2153263
684,0.0
715,58140647.944191
2,1, 8,21, 0, 2, 0.00,15.00,SummerDesignDay
9,81607663.2153263
684,0.0
715,57118875.6573056
2,1, 8,21, 0, 2,15.00,30.00,SummerDesignDay
9,81607663.2153263
684,0.0
715,56373557.6520765
2,1, 8,21, 0, 2,30.00,45.00,SummerDesignDay
9,81607663.2153263
684,0.0
715,55734465.7441973
2,1, 8,21, 0, 2,45.00,60.00,SummerDesignDay
9,81607663.2153263
684,0.0
715,55150610.1625152
2,1, 8,21, 0, 3, 0.00,15.00,SummerDesignDay
9,81607663.2153263
684,0.0
715,54646745.1511582
2,1, 8,21, 0, 3,15.00,30.00,SummerDesignDay
9,81607663.2153263
684,0.0
715,54173443.4673595
2,1, 8,21, 0, 3,30.00,45.00,SummerDesignDay
9,81607663.2153263
684,0.0
715,53729862.9933264
2,1, 8,21, 0, 3,45.00,60.00,SummerDesignDay
9,81607663.2153263
684,0.0
715,53305636.5913411
2,1, 8,21, 0, 4, 0.00,15.00,SummerDesignDay
9,81607663.2153263
684,0.0
715,52894539.2167023
2,1, 8,21, 0, 4,15.00,30.00,SummerDesignDay
9,81607663.2153263
684,0.0
715,52493554.3061534
2,1, 8,21, 0, 4,30.00,45.00,SummerDesignDay
9,81607663.2153263
684,0.0
715,52100406.4264454
2,1, 8,21, 0, 4,45.00,60.00,SummerDesignDay
9,81607663.2153263
684,0.0
715,51713857.4722861
2,1, 8,21, 0, 5, 0.00,15.00,SummerDesignDay
9,81607663.2153263
684,0.0
715,51381297.4633912
2,1, 8,21, 0, 5,15.00,30.00,SummerDesignDay
9,81607663.2153263
684,0.0
715,51055061.5811967
2,1, 8,21, 0, 5,30.00,45.00,SummerDesignDay
9,81607663.2153263
684,0.0
715,50735921.6442205
2,1, 8,21, 0, 5,45.00,60.00,SummerDesignDay
9,81607663.2153263
684,0.0
715,50419867.7754422
2,1, 8,21, 0, 6, 0.00,15.00,SummerDesignDay
9,81607663.2153263
684,0.0
715,50300676.0512754
2,1, 8,21, 0, 6,15.00,30.00,SummerDesignDay
9,81607663.2153263
684,0.0
715,50203947.7491615
2,1, 8,21, 0, 6,30.00,45.00,SummerDesignDay
9,81607663.2153263
684,0.0
715,50369692.9063137
2,1, 8,21, 0, 6,45.00,60.00,SummerDesignDay
9,81607663.2153263
684,0.0
715,50851457.1960361
2,1, 8,21, 0, 7, 0.00,15.00,SummerDesignDay
9,81607663.2153263
684,0.0
715,172804319.213331
2,1, 8,21, 0, 7,15.00,30.00,SummerDesignDay
9,81607663.2153263
684,0.0
715,69283187.7958549
2,1, 8,21, 0, 7,30.00,45.00,SummerDesignDay
9,81607663.2153263
684,0.0
715,153466577.553
2,1, 8,21, 0, 7,45.00,60.00,SummerDesignDay
9,81607663.2153263
684,0.0